 DBCSR| CPU Multiplication driver                                           XSMM (U)
 DBCSR| Multrec recursion limit                                              512 (U)
 DBCSR| Multiplication stack size                                           1000 (D)
 DBCSR| Maximum elements for images                                    UNLIMITED (U)
 DBCSR| Multiplicative factor virtual images                                   1 (U)
 DBCSR| Use multiplication densification                                       T (D)
 DBCSR| Multiplication size stacks                                             3 (U)
 DBCSR| Use memory pool for CPU allocation                                     F (U)
 DBCSR| Number of 3D layers                                               SINGLE (U)
 DBCSR| Use MPI memory allocation                                              F (U)
 DBCSR| Use RMA algorithm                                                      F (U)
 DBCSR| Use Communication thread                                               T (U)
 DBCSR| Communication thread load                                             87 (D)
 DBCSR| MPI: My process id                                                     0
 DBCSR| MPI: Number of processes                                               1
 DBCSR| OMP: Current number of threads                                         1
 DBCSR| OMP: Max number of threads                                             1
 DBCSR| Split modifier for TAS multiplication algorithm                  1.0E+00 (U)


  **** **** ******  **  PROGRAM STARTED AT               2026-04-29 15:41:21.321
 ***** ** ***  *** **   PROGRAM STARTED ON                midway3-0009.rcc.local
 **    ****   ******    PROGRAM STARTED BY                                sjzhao
 ***** **    ** ** **   PROGRAM PROCESS ID                               1007675
  **** **  *******  **  PROGRAM STARTED IN             /project/chem26800/sjzhao

 CP2K| version string:                                       CP2K version 2026.1
 CP2K| source code revision number:                                  git:5e54ba2
 CP2K| cp2kflags: omp libint fftw3 libxc parallel scalapack xsmm                
 CP2K| is freely available from                            https://www.cp2k.org/
 CP2K| Program compiled at                                   2026-04-21 00:27:03
 CP2K| Program compiled on                              midway3-login1.rcc.local
 CP2K| Program compiled for                                               x86_64
 CP2K| Data directory path    /home/sjzhao/spack/opt/spack/linux-cascadelake/cp2
 CP2K| Input file name                                                Au4_IE.inp

 GLOBAL| Force Environment number                                              1
 GLOBAL| Basis set file name            /home/sjzhao/spack/opt/spack/linux-casca
 GLOBAL| Potential file name            /home/sjzhao/spack/opt/spack/linux-casca
 GLOBAL| MM Potential file name                                     MM_POTENTIAL
 GLOBAL| Coordinate file name                                            Au4.xyz
 GLOBAL| Method name                                                        CP2K
 GLOBAL| Project name                                                Au4_charge1
 GLOBAL| Run type                                                         ENERGY
 GLOBAL| FFT library                                                       FFTW3
 GLOBAL| Diagonalization library                                       ScaLAPACK
 GLOBAL| Cholesky decomposition library                                ScaLAPACK
 GLOBAL| DGEMM library                                                      BLAS
 GLOBAL| Orthonormality check for eigenvectors                          DISABLED
 GLOBAL| Matrix multiplication library                                 ScaLAPACK
 GLOBAL| All-to-all communication in single precision                          F
 GLOBAL| FFTs using library dependent lengths                                  F
 GLOBAL| Grid backend                                                       AUTO
 GLOBAL| Global print level                                               MEDIUM
 GLOBAL| MPI I/O enabled                                                       T
 GLOBAL| Total number of message passing processes                             1
 GLOBAL| Number of distributed systems (nodes)                                 1
 GLOBAL| Number of threads for this process                                    1
 GLOBAL| This output is from process                                           0
 GLOBAL| OpenMP stack size per thread (OMP_STACKSIZE)                    default
 GLOBAL| CPU model name                Intel(R) Xeon(R) Gold 6248R CPU @ 3.00GHz
 GLOBAL| CPUID                                                              1003

 MEMORY| system memory details [Kb]
 MEMORY|                        rank 0           min           max       average
 MEMORY| MemTotal            197740536     197740536     197740536     197740536
 MEMORY| MemFree             103977844     103977844     103977844     103977844
 MEMORY| Buffers                     0             0             0             0
 MEMORY| Cached               63789348      63789348      63789348      63789348
 MEMORY| Slab                  6929352       6929352       6929352       6929352
 MEMORY| SReclaimable           483892        483892        483892        483892
 MEMORY| MemLikelyFree       168251084     168251084     168251084     168251084


 *** Fundamental physical constants (SI units) ***

 *** Literature: B. J. Mohr and B. N. Taylor,
 ***             CODATA recommended values of the fundamental physical
 ***             constants: 2006, Web Version 5.1
 ***             http://physics.nist.gov/constants

 Speed of light in vacuum [m/s]                             2.99792458000000E+08
 Magnetic constant or permeability of vacuum [N/A**2]       1.25663706143592E-06
 Electric constant or permittivity of vacuum [F/m]          8.85418781762039E-12
 Planck constant (h) [J*s]                                  6.62606896000000E-34
 Planck constant (h-bar) [J*s]                              1.05457162825177E-34
 Elementary charge [C]                                      1.60217648700000E-19
 Electron mass [kg]                                         9.10938215000000E-31
 Electron g factor [ ]                                     -2.00231930436220E+00
 Proton mass [kg]                                           1.67262163700000E-27
 Fine-structure constant                                    7.29735253760000E-03
 Rydberg constant [1/m]                                     1.09737315685270E+07
 Avogadro constant [1/mol]                                  6.02214179000000E+23
 Boltzmann constant [J/K]                                   1.38065040000000E-23
 Atomic mass unit [kg]                                      1.66053878200000E-27
 Bohr radius [m]                                            5.29177208590000E-11

 *** Conversion factors ***

 [u] -> [a.u.]                                              1.82288848426455E+03
 [Angstrom] -> [Bohr] = [a.u.]                              1.88972613288564E+00
 [a.u.] = [Bohr] -> [Angstrom]                              5.29177208590000E-01
 [a.u.] -> [s]                                              2.41888432650478E-17
 [a.u.] -> [fs]                                             2.41888432650478E-02
 [a.u.] -> [J]                                              4.35974393937059E-18
 [a.u.] -> [N]                                              8.23872205491840E-08
 [a.u.] -> [K]                                              3.15774647902944E+05
 [a.u.] -> [kJ/mol]                                         2.62549961709828E+03
 [a.u.] -> [kcal/mol]                                       6.27509468713739E+02
 [a.u.] -> [Pa]                                             2.94210107994716E+13
 [a.u.] -> [bar]                                            2.94210107994716E+08
 [a.u.] -> [atm]                                            2.90362800883016E+08
 [a.u.] -> [eV]                                             2.72113838565563E+01
 [a.u.] -> [Hz]                                             6.57968392072181E+15
 [a.u.] -> [1/cm] (wave numbers)                            2.19474631370540E+05
 [a.u./Bohr**2] -> [1/cm]                                   5.14048714338585E+03
 

 CELL_TOP| Volume [angstrom^3]:                                     27000.000000
 CELL_TOP| Vector a [angstrom    30.000     0.000     0.000   |a| =    30.000000
 CELL_TOP| Vector b [angstrom     0.000    30.000     0.000   |b| =    30.000000
 CELL_TOP| Vector c [angstrom     0.000     0.000    30.000   |c| =    30.000000
 CELL_TOP| Angle (b,c), alpha [degree]:                                90.000000
 CELL_TOP| Angle (a,c), beta  [degree]:                                90.000000
 CELL_TOP| Angle (a,b), gamma [degree]:                                90.000000
 CELL_TOP| Numerically orthorhombic:                                         YES
 CELL_TOP| Periodicity                                                      NONE

 GENERATE|  Preliminary Number of Bonds generated:                             0
 GENERATE|  Achieved consistency in connectivity generation.

 CELL| Volume [angstrom^3]:                                         27000.000000
 CELL| Vector a [angstrom]:      30.000     0.000     0.000   |a| =    30.000000
 CELL| Vector b [angstrom]:       0.000    30.000     0.000   |b| =    30.000000
 CELL| Vector c [angstrom]:       0.000     0.000    30.000   |c| =    30.000000
 CELL| Angle (b,c), alpha [degree]:                                    90.000000
 CELL| Angle (a,c), beta  [degree]:                                    90.000000
 CELL| Angle (a,b), gamma [degree]:                                    90.000000
 CELL| Numerically orthorhombic:                                             YES
 CELL| Periodicity                                                          NONE

 CELL_REF| Volume [angstrom^3]:                                     27000.000000
 CELL_REF| Vector a [angstrom    30.000     0.000     0.000   |a| =    30.000000
 CELL_REF| Vector b [angstrom     0.000    30.000     0.000   |b| =    30.000000
 CELL_REF| Vector c [angstrom     0.000     0.000    30.000   |c| =    30.000000
 CELL_REF| Angle (b,c), alpha [degree]:                                90.000000
 CELL_REF| Angle (a,c), beta  [degree]:                                90.000000
 CELL_REF| Angle (a,b), gamma [degree]:                                90.000000
 CELL_REF| Numerically orthorhombic:                                         YES
 CELL_REF| Periodicity                                                      NONE

 *******************************************************************************
 *******************************************************************************
 **                                                                           **
 **     #####                         ##              ##                      **
 **    ##   ##            ##          ##              ##                      **
 **   ##     ##                       ##            ######                    **
 **   ##     ##  ##   ##  ##   #####  ##  ##   ####   ##    #####    #####    **
 **   ##     ##  ##   ##  ##  ##      ## ##   ##      ##   ##   ##  ##   ##   **
 **   ##  ## ##  ##   ##  ##  ##      ####     ###    ##   ######   ######    **
 **    ##  ###   ##   ##  ##  ##      ## ##      ##   ##   ##       ##        **
 **     #######   #####   ##   #####  ##  ##  ####    ##    #####   ##        **
 **           ##                                                    ##        **
 **                                                                           **
 **                                                ... make the atoms dance   **
 **                                                                           **
 **            Copyright (C) by CP2K developers group (2000-2026)             **
 **                      J. Chem. Phys. 152, 194103 (2020)                    **
 **                                                                           **
 *******************************************************************************

 DFT| Spin unrestricted (spin-polarized) Kohn-Sham calculation               UKS
 DFT| Multiplicity                                                             2
 DFT| Number of spin states                                                    2
 DFT| Charge                                                                   1
 DFT| Self-interaction correction (SIC)                                       NO
 DFT| Cutoffs: density                                              1.000000E-10
 DFT|          gradient                                             1.000000E-10
 DFT|          tau                                                  1.000000E-10
 DFT|          cutoff_smoothing_range                               0.000000E+00
 DFT| XC density smoothing                                                  NONE
 DFT| XC derivatives                                                          PW

 FUNCTIONAL| PBE:
 FUNCTIONAL| J.P.Perdew, K.Burke, M.Ernzerhof, Phys. Rev. Letter, vol. 77, n 18,
 FUNCTIONAL|  pp. 3865-3868, (1996) {spin polarized}                            

 vdW POTENTIAL|                                                   Pair Potential
 vdW POTENTIAL|          DFT-D3 (Version 3.1)
 vdW POTENTIAL|          Potential Form: S. Grimme et al, JCP 132: 154104 (2010)
 vdW POTENTIAL|          BJ Damping: S. Grimme et al, JCC 32: 1456 (2011)
 vdW POTENTIAL|          Cutoff Radius [Bohr]:                             20.00
 vdW POTENTIAL|          s6 Scaling Factor:                               1.0000
 vdW POTENTIAL|          a1 Damping Factor:                               0.4289
 vdW POTENTIAL|          s8 Scaling Factor:                               0.7875
 vdW POTENTIAL|          a2 Damping Factor:                               4.4407
 vdW POTENTIAL|          Cutoff for CN calculation:                   0.1000E-05

 QS| Method:                                                                 GPW
 QS| Density plane wave grid type                        NON-SPHERICAL FULLSPACE
 QS| Number of grid levels:                                                    5
 QS| Density cutoff [a.u.]:                                                300.0
 QS| Multi grid cutoff [a.u.]: 1) grid level                               300.0
 QS|                           2) grid level                               100.0
 QS|                           3) grid level                                33.3
 QS|                           4) grid level                                11.1
 QS|                           5) grid level                                 3.7
 QS| Grid level progression factor:                                          3.0
 QS| Relative density cutoff [a.u.]:                                        40.0
 QS| Interaction thresholds: eps_pgf_orb:                                1.0E-06
 QS|                         eps_filter_matrix:                          0.0E+00
 QS|                         eps_core_charge:                            1.0E-14
 QS|                         eps_rho_gspace:                             1.0E-12
 QS|                         eps_rho_rspace:                             1.0E-12
 QS|                         eps_gvg_rspace:                             1.0E-06
 QS|                         eps_ppl:                                    1.0E-02
 QS|                         eps_ppnl:                                   1.0E-08


 ATOMIC KIND INFORMATION

  1. Atomic kind: Au                                    Number of atoms:       4

     Orbital Basis Set                                        TZVP-MOLOPT-SR-GTH

       Number of orbital shell sets:                                           1
       Number of orbital shells:                                              10
       Number of primitive Cartesian functions:                                5
       Number of Cartesian basis functions:                                   40
       Number of spherical basis functions:                                   34
       Norm type:                                                              2

       Normalised Cartesian orbitals:

                        Set   Shell   Orbital            Exponent    Coefficient

                          1       1    2s                2.950008       0.049750
                                                         1.563057       0.267328
                                                         0.666664      -0.551598
                                                         0.251083       0.072002
                                                         0.081714       0.114867

                          1       2    3s                2.950008      -0.078739
                                                         1.563057       0.378930
                                                         0.666664      -0.110770
                                                         0.251083      -0.245520
                                                         0.081714      -0.004637

                          1       3    4s                2.950008      -0.053770
                                                         1.563057      -0.237101
                                                         0.666664       0.396801
                                                         0.251083      -0.074391
                                                         0.081714       0.097129

                          1       4    3px               2.950008      -0.287410
                                                         1.563057      -0.046810
                                                         0.666664       0.090038
                                                         0.251083       0.061414
                                                         0.081714       0.048416
                          1       4    3py               2.950008      -0.287410
                                                         1.563057      -0.046810
                                                         0.666664       0.090038
                                                         0.251083       0.061414
                                                         0.081714       0.048416
                          1       4    3pz               2.950008      -0.287410
                                                         1.563057      -0.046810
                                                         0.666664       0.090038
                                                         0.251083       0.061414
                                                         0.081714       0.048416

                          1       5    4px               2.950008      -0.031230
                                                         1.563057      -0.259325
                                                         0.666664       0.363713
                                                         0.251083      -0.386040
                                                         0.081714       0.025850
                          1       5    4py               2.950008      -0.031230
                                                         1.563057      -0.259325
                                                         0.666664       0.363713
                                                         0.251083      -0.386040
                                                         0.081714       0.025850
                          1       5    4pz               2.950008      -0.031230
                                                         1.563057      -0.259325
                                                         0.666664       0.363713
                                                         0.251083      -0.386040
                                                         0.081714       0.025850

                          1       6    5px               2.950008      -0.634652
                                                         1.563057      -0.963299
                                                         0.666664       0.995880
                                                         0.251083       0.070517
                                                         0.081714      -0.016209
                          1       6    5py               2.950008      -0.634652
                                                         1.563057      -0.963299
                                                         0.666664       0.995880
                                                         0.251083       0.070517
                                                         0.081714      -0.016209
                          1       6    5pz               2.950008      -0.634652
                                                         1.563057      -0.963299
                                                         0.666664       0.995880
                                                         0.251083       0.070517
                                                         0.081714      -0.016209

                          1       7    4dx2              2.950008       0.572996
                                                         1.563057       0.322251
                                                         0.666664       0.300173
                                                         0.251083       0.099388
                                                         0.081714      -0.001351
                          1       7    4dxy              2.950008       0.992458
                                                         1.563057       0.558156
                                                         0.666664       0.519915
                                                         0.251083       0.172145
                                                         0.081714      -0.002339
                          1       7    4dxz              2.950008       0.992458
                                                         1.563057       0.558156
                                                         0.666664       0.519915
                                                         0.251083       0.172145
                                                         0.081714      -0.002339
                          1       7    4dy2              2.950008       0.572996
                                                         1.563057       0.322251
                                                         0.666664       0.300173
                                                         0.251083       0.099388
                                                         0.081714      -0.001351
                          1       7    4dyz              2.950008       0.992458
                                                         1.563057       0.558156
                                                         0.666664       0.519915
                                                         0.251083       0.172145
                                                         0.081714      -0.002339
                          1       7    4dz2              2.950008       0.572996
                                                         1.563057       0.322251
                                                         0.666664       0.300173
                                                         0.251083       0.099388
                                                         0.081714      -0.001351

                          1       8    5dx2              2.950008      -0.221363
                                                         1.563057      -0.288021
                                                         0.666664      -0.277201
                                                         0.251083       0.041335
                                                         0.081714       0.017516
                          1       8    5dxy              2.950008      -0.383413
                                                         1.563057      -0.498867
                                                         0.666664      -0.480127
                                                         0.251083       0.071593
                                                         0.081714       0.030338
                          1       8    5dxz              2.950008      -0.383413
                                                         1.563057      -0.498867
                                                         0.666664      -0.480127
                                                         0.251083       0.071593
                                                         0.081714       0.030338
                          1       8    5dy2              2.950008      -0.221363
                                                         1.563057      -0.288021
                                                         0.666664      -0.277201
                                                         0.251083       0.041335
                                                         0.081714       0.017516
                          1       8    5dyz              2.950008      -0.383413
                                                         1.563057      -0.498867
                                                         0.666664      -0.480127
                                                         0.251083       0.071593
                                                         0.081714       0.030338
                          1       8    5dz2              2.950008      -0.221363
                                                         1.563057      -0.288021
                                                         0.666664      -0.277201
                                                         0.251083       0.041335
                                                         0.081714       0.017516

                          1       9    6dx2              2.950008      -1.281149
                                                         1.563057       2.633116
                                                         0.666664       0.400943
                                                         0.251083      -0.047276
                                                         0.081714       0.007642
                          1       9    6dxy              2.950008      -2.219015
                                                         1.563057       4.560691
                                                         0.666664       0.694454
                                                         0.251083      -0.081884
                                                         0.081714       0.013236
                          1       9    6dxz              2.950008      -2.219015
                                                         1.563057       4.560691
                                                         0.666664       0.694454
                                                         0.251083      -0.081884
                                                         0.081714       0.013236
                          1       9    6dy2              2.950008      -1.281149
                                                         1.563057       2.633116
                                                         0.666664       0.400943
                                                         0.251083      -0.047276
                                                         0.081714       0.007642
                          1       9    6dyz              2.950008      -2.219015
                                                         1.563057       4.560691
                                                         0.666664       0.694454
                                                         0.251083      -0.081884
                                                         0.081714       0.013236
                          1       9    6dz2              2.950008      -1.281149
                                                         1.563057       2.633116
                                                         0.666664       0.400943
                                                         0.251083      -0.047276
                                                         0.081714       0.007642

                          1      10    5fx3              2.950008      -0.471653
                                                         1.563057       0.476248
                                                         0.666664      -0.241506
                                                         0.251083      -0.039345
                                                         0.081714      -0.001389
                          1      10    5fx2y             2.950008      -1.054649
                                                         1.563057       1.064923
                                                         0.666664      -0.540024
                                                         0.251083      -0.087977
                                                         0.081714      -0.003106
                          1      10    5fx2z             2.950008      -1.054649
                                                         1.563057       1.064923
                                                         0.666664      -0.540024
                                                         0.251083      -0.087977
                                                         0.081714      -0.003106
                          1      10    5fxy2             2.950008      -1.054649
                                                         1.563057       1.064923
                                                         0.666664      -0.540024
                                                         0.251083      -0.087977
                                                         0.081714      -0.003106
                          1      10    5fxyz             2.950008      -1.826705
                                                         1.563057       1.844501
                                                         0.666664      -0.935348
                                                         0.251083      -0.152381
                                                         0.081714      -0.005380
                          1      10    5fxz2             2.950008      -1.054649
                                                         1.563057       1.064923
                                                         0.666664      -0.540024
                                                         0.251083      -0.087977
                                                         0.081714      -0.003106
                          1      10    5fy3              2.950008      -0.471653
                                                         1.563057       0.476248
                                                         0.666664      -0.241506
                                                         0.251083      -0.039345
                                                         0.081714      -0.001389
                          1      10    5fy2z             2.950008      -1.054649
                                                         1.563057       1.064923
                                                         0.666664      -0.540024
                                                         0.251083      -0.087977
                                                         0.081714      -0.003106
                          1      10    5fyz2             2.950008      -1.054649
                                                         1.563057       1.064923
                                                         0.666664      -0.540024
                                                         0.251083      -0.087977
                                                         0.081714      -0.003106
                          1      10    5fz3              2.950008      -0.471653
                                                         1.563057       0.476248
                                                         0.666664      -0.241506
                                                         0.251083      -0.039345
                                                         0.081714      -0.001389

       Atomic covalent radius [Angstrom]:                                  1.340

       Atomic van der Waals radius [Angstrom]:                             1.660

     GTH Potential information for                                   GTH-PBE-q11

       Description:                       Goedecker-Teter-Hutter pseudopotential
                                           Goedecker et al., PRB 54, 1703 (1996)
                                          Hartwigsen et al., PRB 58, 3641 (1998)
                                                      Krack, TCA 114, 145 (2005)

       Gaussian exponent of the core charge distribution:               1.436369
       Electronic configuration (s p d ...):                           1   0  10

       Parameters of the local part of the GTH pseudopotential:

                          rloc        C1          C2          C3          C4
                        0.590000   10.517179

       Parameters of the non-local part of the GTH pseudopotential:

                   l      r(l)      h(i,j,l)

                   0    0.543847    5.786811   -2.250680
                                   -2.250680    2.905615
                   1    0.609173    4.284049   -4.071285
                                   -4.071285    4.817210
                   2    0.437309   -7.403281    3.010193
                                    3.010193   -3.413238


 MOLECULE KIND INFORMATION


 All atoms are their own molecule, skipping detailed information


 TOTAL NUMBERS AND MAXIMUM NUMBERS

  Total number of            - Atomic kinds:                                   1
                             - Atoms:                                          4
                             - Shell sets:                                     4
                             - Shells:                                        40
                             - Primitive Cartesian functions:                 20
                             - Cartesian basis functions:                    160
                             - Spherical basis functions:                    136

  Maximum angular momentum of- Orbital basis functions:                        3
                             - Local part of the GTH pseudopotential:          0
                             - Non-local part of the GTH pseudopotential:      4


 MODULE QUICKSTEP: ATOMIC COORDINATES IN ANGSTROM

   Atom Kind Element         X             Y             Z       Z(eff)     Mass
      1    1 Au   79      0.000000      0.000000      0.000000  11.0000 196.9666
      2    1 Au   79      0.000000      2.039100      2.039100  11.0000 196.9666
      3    1 Au   79      2.039100      0.000000      2.039100  11.0000 196.9666
      4    1 Au   79      2.039100      2.039100      0.000000  11.0000 196.9666



 SCF PARAMETERS         Density guess:                                    ATOMIC
                        --------------------------------------------------------
                        max_scf:                                             200
                        max_scf_history:                                       0
                        max_diis:                                              4
                        --------------------------------------------------------
                        eps_scf:                                        1.00E-07
                        eps_scf_history:                                0.00E+00
                        eps_diis:                                       0.00E+00
                        eps_eigval:                                     1.00E-05
                        --------------------------------------------------------
                        level_shift [a.u.]:                             0.000000
                        --------------------------------------------------------
                        Outer loop SCF in use 
                        No variables optimised in outer loop
                        eps_scf                                         1.00E-07
                        max_scf                                               20
                        No outer loop optimization
                        step_size                                       5.00E-01

 PW_GRID| Information for grid number                                          1
 PW_GRID| Cutoff [a.u.]                                                    600.0
 PW_GRID| spherical cutoff:                                                   NO
 PW_GRID|   Bounds   1           -312     312                Points:         625
 PW_GRID|   Bounds   2           -312     312                Points:         625
 PW_GRID|   Bounds   3           -312     312                Points:         625
 PW_GRID| Volume element (a.u.^3)  0.7463E-03     Volume (a.u.^3)    182205.0337
 PW_GRID| Grid span                                                    FULLSPACE

 PW_GRID| Information for grid number                                          2
 PW_GRID| Number of the reference grid                                         1
 PW_GRID| Cutoff [a.u.]                                                    300.0
 PW_GRID| spherical cutoff:                                                   NO
 PW_GRID|   Bounds   1           -225     224                Points:         450
 PW_GRID|   Bounds   2           -225     224                Points:         450
 PW_GRID|   Bounds   3           -225     224                Points:         450
 PW_GRID| Volume element (a.u.^3)  0.2000E-02     Volume (a.u.^3)    182205.0337
 PW_GRID| Grid span                                                    FULLSPACE

 PW_GRID| Information for grid number                                          3
 PW_GRID| Number of the reference grid                                         2
 PW_GRID| Cutoff [a.u.]                                                    100.0
 PW_GRID| spherical cutoff:                                                   NO
 PW_GRID|   Bounds   1           -128     127                Points:         256
 PW_GRID|   Bounds   2           -128     127                Points:         256
 PW_GRID|   Bounds   3           -128     127                Points:         256
 PW_GRID| Volume element (a.u.^3)  0.1086E-01     Volume (a.u.^3)    182205.0337
 PW_GRID| Grid span                                                    FULLSPACE

 PW_GRID| Information for grid number                                          4
 PW_GRID| Number of the reference grid                                         2
 PW_GRID| Cutoff [a.u.]                                                     33.3
 PW_GRID| spherical cutoff:                                                   NO
 PW_GRID|   Bounds   1            -75      74                Points:         150
 PW_GRID|   Bounds   2            -75      74                Points:         150
 PW_GRID|   Bounds   3            -75      74                Points:         150
 PW_GRID| Volume element (a.u.^3)  0.5399E-01     Volume (a.u.^3)    182205.0337
 PW_GRID| Grid span                                                    FULLSPACE

 PW_GRID| Information for grid number                                          5
 PW_GRID| Number of the reference grid                                         2
 PW_GRID| Cutoff [a.u.]                                                     11.1
 PW_GRID| spherical cutoff:                                                   NO
 PW_GRID|   Bounds   1            -45      44                Points:          90
 PW_GRID|   Bounds   2            -45      44                Points:          90
 PW_GRID|   Bounds   3            -45      44                Points:          90
 PW_GRID| Volume element (a.u.^3)  0.2499         Volume (a.u.^3)    182205.0337
 PW_GRID| Grid span                                                    FULLSPACE

 PW_GRID| Information for grid number                                          6
 PW_GRID| Number of the reference grid                                         2
 PW_GRID| Cutoff [a.u.]                                                      3.7
 PW_GRID| spherical cutoff:                                                   NO
 PW_GRID|   Bounds   1            -27      26                Points:          54
 PW_GRID|   Bounds   2            -27      26                Points:          54
 PW_GRID|   Bounds   3            -27      26                Points:          54
 PW_GRID| Volume element (a.u.^3)   1.157         Volume (a.u.^3)    182205.0337
 PW_GRID| Grid span                                                    FULLSPACE

 POISSON| Solver                                          Martyna-Tuckerman (MT)
 POISSON| MT| Alpha                                                        7.000
 POISSON| MT| Relative cutoff                                                2.0
 POISSON| Periodicity                                                       NONE

 RS_GRID| Information for grid number                                          2
 RS_GRID|   Bounds   1           -225     224                Points:         450
 RS_GRID|   Bounds   2           -225     224                Points:         450
 RS_GRID|   Bounds   3           -225     224                Points:         450

 RS_GRID| Information for grid number                                          3
 RS_GRID|   Bounds   1           -128     127                Points:         256
 RS_GRID|   Bounds   2           -128     127                Points:         256
 RS_GRID|   Bounds   3           -128     127                Points:         256

 RS_GRID| Information for grid number                                          4
 RS_GRID|   Bounds   1            -75      74                Points:         150
 RS_GRID|   Bounds   2            -75      74                Points:         150
 RS_GRID|   Bounds   3            -75      74                Points:         150

 RS_GRID| Information for grid number                                          5
 RS_GRID|   Bounds   1            -45      44                Points:          90
 RS_GRID|   Bounds   2            -45      44                Points:          90
 RS_GRID|   Bounds   3            -45      44                Points:          90

 RS_GRID| Information for grid number                                          6
 RS_GRID|   Bounds   1            -27      26                Points:          54
 RS_GRID|   Bounds   2            -27      26                Points:          54
 RS_GRID|   Bounds   3            -27      26                Points:          54

 Extrapolation method: initial_guess

 Atomic guess: The first density matrix is obtained in terms of atomic orbitals
               and electronic configurations assigned to each atomic kind

 Guess for atomic kind: Au

 Electronic structure
    Total number of core electrons                                         68.00
    Total number of valence electrons                                      11.00
    Total number of electrons                                              79.00
    Multiplicity                                                   not specified
    S   [  2.00  2.00  2.00  2.00  2.00] 1.00
    P   [  6.00  6.00  6.00  6.00]
    D   [ 10.00 10.00]10.00
    F   [ 14.00]


 *******************************************************************************
                  Iteration          Convergence                     Energy [au]
 *******************************************************************************
                          1         3.43663                     -32.224956876517
                          2         2.40230                     -32.309465863377
                          3        0.647410E-01                 -32.929419996895
                          4        0.243883E-01                 -32.930012990561
                          5        0.587769E-03                 -32.930061390061
                          6        0.940265E-05                 -32.930061418339
                          7        0.335241E-07                 -32.930061418346

 Energy components [Hartree]           Total Energy ::          -32.930061418346
                                        Band Energy ::           -2.476378823962
                                     Kinetic Energy ::           24.393681926829
                                   Potential Energy ::          -57.323743345175
                                      Virial (-V/T) ::            2.349942231645
                                        Core Energy ::          -59.878567281046
                                          XC Energy ::           -5.077084245867
                                     Coulomb Energy ::           32.025590108568
                       Total Pseudopotential Energy ::          -84.375612594116
                       Local Pseudopotential Energy ::          -67.274282193024
                    Nonlocal Pseudopotential Energy ::          -17.101330401092
                                        Confinement ::            1.033633862404

 Orbital energies  State     L     Occupation   Energy[a.u.]          Energy[eV]

                       1     0          1.000      -0.187957           -5.114563

                       1     2         10.000      -0.228842           -6.227113


 Total Electron Density at R=0:                                         0.000023

 Spin 1
 Re-scaling the density matrix to get the right number of electrons for spin 1
                  # Electrons              Trace(P)               Scaling factor
                           22                22.000                        1.000

 Spin 2
 Re-scaling the density matrix to get the right number of electrons for spin 2
                  # Electrons              Trace(P)               Scaling factor
                           21                22.000                        0.955

 Spin 1

 Number of electrons:                                                         22
 Number of occupied orbitals:                                                 22
 Number of molecular orbitals:                                                22

 Spin 2

 Number of electrons:                                                         21
 Number of occupied orbitals:                                                 21
 Number of molecular orbitals:                                                21

 Number of orbital functions:                                                136
 Number of independent orbital functions:                                    136


 SCF WAVEFUNCTION OPTIMIZATION

  ----------------------------------- OT ---------------------------------------
  Minimizer      : DIIS                : direct inversion
                                         in the iterative subspace
                                         using   7 DIIS vectors
                                         safer DIIS on
  Preconditioner : FULL_SINGLE_INVERSE : inversion of 
                                         H + eS - 2*(Sc)(c^T*H*c+const)(Sc)^T
  Precond_solver : DEFAULT
  stepsize       :    0.08000000                  energy_gap     :    0.08000000
  eps_taylor     :   0.10000E-15                  max_taylor     :             4
  ----------------------------------- OT ---------------------------------------

  Step     Update method      Time    Convergence         Total energy    Change
  ------------------------------------------------------------------------------
     1 OT DIIS     0.80E-01  295.9     0.02767556      -131.7441554440 -1.32E+02
     2 OT DIIS     0.80E-01  286.2     0.01752196      -131.9885600878 -2.44E-01
     3 OT DIIS     0.80E-01  290.0     0.01385468      -132.1051007349 -1.17E-01
     4 OT DIIS     0.80E-01  295.0     0.01010474      -132.2501964980 -1.45E-01
     5 OT DIIS     0.80E-01  294.3     0.00758522      -132.3540446872 -1.04E-01
     6 OT DIIS     0.80E-01  296.3     0.00444089      -132.4452933749 -9.12E-02
     7 OT DIIS     0.80E-01  295.6     0.00382742      -132.4547432751 -9.45E-03
     8 OT DIIS     0.80E-01  287.4     0.00220661      -132.4771158897 -2.24E-02
     9 OT DIIS     0.80E-01  272.6     0.00164922      -132.4825656549 -5.45E-03
    10 OT DIIS     0.80E-01  283.9     0.00111097      -132.4876512626 -5.09E-03
    11 OT DIIS     0.80E-01  281.0     0.00089505      -132.4891647931 -1.51E-03
    12 OT DIIS     0.80E-01  276.0     0.00055977      -132.4904638631 -1.30E-03
    13 OT DIIS     0.80E-01  258.4     0.00036585      -132.4909829745 -5.19E-04
    14 OT DIIS     0.80E-01  235.5     0.00031022      -132.4911271935 -1.44E-04
    15 OT DIIS     0.80E-01  255.3     0.00021025      -132.4913013764 -1.74E-04
    16 OT DIIS     0.80E-01  253.0     0.00018070      -132.4913574107 -5.60E-05
    17 OT DIIS     0.80E-01  255.0     0.00013859      -132.4914375490 -8.01E-05
    18 OT DIIS     0.80E-01  272.3     0.00012486      -132.4914689657 -3.14E-05
    19 OT DIIS     0.80E-01  198.0     0.00011045      -132.4915106051 -4.16E-05
    20 OT DIIS     0.80E-01  180.9     0.00010622      -132.4915283733 -1.78E-05
    21 OT DIIS     0.80E-01  180.6     0.00010212      -132.4915549749 -2.66E-05
    22 OT DIIS     0.80E-01  182.3     0.00009946      -132.4915790388 -2.41E-05
    23 OT DIIS     0.80E-01  198.3     0.00009536      -132.4916320541 -5.30E-05
    24 OT DIIS     0.80E-01  179.7     0.00009315      -132.4916657942 -3.37E-05
    25 OT DIIS     0.80E-01  250.2     0.00009065      -132.4917135226 -4.77E-05
    26 OT DIIS     0.80E-01  242.5     0.00008683      -132.4917734304 -5.99E-05
    27 OT DIIS     0.80E-01  179.6     0.00008041      -132.4918599994 -8.66E-05
    28 OT DIIS     0.80E-01  179.7     0.00007448      -132.4919279690 -6.80E-05
    29 OT SD       0.80E-01  179.1     0.00006593      -132.4920447070 -1.17E-04
    30 OT DIIS     0.80E-01  179.3     0.00006085      -132.4920466536 -1.95E-06
    31 OT DIIS     0.80E-01  179.5     0.00005744      -132.4921060361 -5.94E-05
    32 OT DIIS     0.80E-01  178.2     0.00004050      -132.4921163346 -1.03E-05
    33 OT DIIS     0.80E-01  178.6     0.00004311      -132.4921410191 -2.47E-05
    34 OT DIIS     0.80E-01  178.6     0.00002812      -132.4921403763  6.43E-07
    35 OT DIIS     0.80E-01  178.7     0.00001993      -132.4921474494 -7.07E-06
    36 OT DIIS     0.80E-01  180.5     0.00001961      -132.4921476853 -2.36E-07
    37 OT DIIS     0.80E-01  270.0     0.00001504      -132.4921487255 -1.04E-06
    38 OT DIIS     0.80E-01  268.5     0.00000983      -132.4921501249 -1.40E-06
    39 OT DIIS     0.80E-01  271.8     0.00000845      -132.4921508077 -6.83E-07
    40 OT DIIS     0.80E-01  263.2     0.00000737      -132.4921509468 -1.39E-07
    41 OT DIIS     0.80E-01  186.4     0.00000641      -132.4921510256 -7.88E-08
    42 OT DIIS     0.80E-01  190.5     0.00000522      -132.4921511111 -8.55E-08
    43 OT DIIS     0.80E-01  255.2     0.00000472      -132.4921511426 -3.16E-08
    44 OT DIIS     0.80E-01  237.9     0.00000339      -132.4921512490 -1.06E-07
    45 OT DIIS     0.80E-01  220.8     0.00000305      -132.4921512789 -2.99E-08
    46 OT DIIS     0.80E-01  247.8     0.00000287      -132.4921512965 -1.75E-08
    47 OT DIIS     0.80E-01  265.3     0.00000265      -132.4921513209 -2.45E-08
    48 OT DIIS     0.80E-01  210.2     0.00000254      -132.4921513317 -1.07E-08
    49 OT DIIS     0.80E-01  213.0     0.00000236      -132.4921513547 -2.30E-08
    50 OT DIIS     0.80E-01  277.7     0.00000220      -132.4921513753 -2.06E-08
    51 OT DIIS     0.80E-01  279.8     0.00000204      -132.4921514040 -2.88E-08
    52 OT DIIS     0.80E-01  258.7     0.00000198      -132.4921514129 -8.89E-09
    53 OT DIIS     0.80E-01  193.3     0.00000160      -132.4921514562 -4.33E-08
    54 OT DIIS     0.80E-01  241.2     0.00000133      -132.4921514851 -2.89E-08
    55 OT DIIS     0.80E-01  262.2     0.00000105      -132.4921515087 -2.36E-08
    56 OT DIIS     0.80E-01  255.5     0.00000092      -132.4921515151 -6.43E-09
    57 OT DIIS     0.80E-01  202.9     0.00000084      -132.4921515182 -3.06E-09
    58 OT DIIS     0.80E-01  232.8     0.00000070      -132.4921515242 -6.02E-09
    59 OT DIIS     0.80E-01  284.2     0.00000060      -132.4921515272 -3.02E-09
    60 OT DIIS     0.80E-01  286.3     0.00000058      -132.4921515279 -7.43E-10
    61 OT DIIS     0.80E-01  199.0     0.00000054      -132.4921515289 -9.77E-10
    62 OT DIIS     0.80E-01  199.9     0.00000051      -132.4921515297 -7.31E-10
    63 OT DIIS     0.80E-01  213.4     0.00000048      -132.4921515306 -9.76E-10
    64 OT DIIS     0.80E-01  220.0     0.00000045      -132.4921515317 -1.04E-09
    65 OT DIIS     0.80E-01  209.5     0.00000042      -132.4921515326 -9.27E-10
    66 OT DIIS     0.80E-01  206.7     0.00000040      -132.4921515332 -5.76E-10
    67 OT DIIS     0.80E-01  214.3     0.00000025      -132.4921515367 -3.51E-09
    68 OT DIIS     0.80E-01  215.0     0.00000019      -132.4921515376 -9.16E-10
    69 OT DIIS     0.80E-01  229.4     0.00000017      -132.4921515378 -2.01E-10
    70 OT DIIS     0.80E-01  228.0     0.00000013      -132.4921515380 -2.31E-10
    71 OT DIIS     0.80E-01  215.3     0.00000010      -132.4921515381 -6.84E-11
    72 OT SD       0.80E-01  223.5     0.00000009      -132.4921515381 -2.07E-12

  *** SCF run converged in    72 steps ***


  Electronic density on regular grids:        -43.0000000000        0.0000000000
  Core density on regular grids:               43.9999999999       -0.0000000001
  Total charge density on r-space grids:        0.9999999999
  Total charge density g-space grids:           0.9999999999

  Overlap energy of the core charge distribution:               0.00000000869885
  Self energy of the core charge distribution:               -231.41335460772382
  Core Hamiltonian energy:                                     74.22001255872499
  Hartree energy:                                              45.23106626050792
  Exchange-correlation energy:                                -20.52124664421249
  Dispersion energy:                                           -0.00862911409088

  Total energy:                                              -132.49215153809544

  outer SCF iter =    1 RMS gradient =   0.89E-07 energy =       -132.4921515381
  outer SCF loop converged in   1 iterations or   72 steps


  Integrated spin density:                                          1.0000000000
  Integrated absolute spin density:                                 1.1727234365
  Ideal and single determinant S**2 :                    0.750000       0.760704

 !-----------------------------------------------------------------------------!
                     Mulliken Population Analysis

 #  Atom  Element  Kind  Atomic population (alpha,beta) Net charge  Spin moment
       1     Au       1         5.499958     5.250020     0.250022     0.249938
       2     Au       1         5.500009     5.249995     0.249995     0.250014
       3     Au       1         5.500041     5.249981     0.249978     0.250060
       4     Au       1         5.499992     5.250004     0.250005     0.249988
 # Total charge and spin       22.000000    21.000000     1.000000     1.000000

 !-----------------------------------------------------------------------------!

 !-----------------------------------------------------------------------------!
                           Hirshfeld Charges

  #Atom  Element  Kind  Ref Charge     Population       Spin moment  Net charge
      1       Au     1      11.000    5.500   5.250            0.250      0.250
      2       Au     1      11.000    5.500   5.250            0.250      0.250
      3       Au     1      11.000    5.500   5.250            0.250      0.250
      4       Au     1      11.000    5.500   5.250            0.250      0.250

  Total Charge                                                            1.000
 !-----------------------------------------------------------------------------!

 ENERGY| Total FORCE_EVAL ( QS ) energy [hartree]           -132.492151538095442

 -------------------------------------------------------------------------------
 -                                                                             -
 -                                DBCSR STATISTICS                             -
 -                                                                             -
 -------------------------------------------------------------------------------
 COUNTER                                    TOTAL       BLAS       SMM       ACC
 flops    34 x    21 x    21               119952       0.0%    100.0%      0.0%     
 flops    34 x    22 x    22               131648       0.0%    100.0%      0.0%     
 flops    21 x    21 x    21             11891124       0.0%    100.0%      0.0%     
 flops    22 x    22 x    22             13672032       0.0%    100.0%      0.0%     
 flops    21 x    21 x   136             34546176       0.0%    100.0%      0.0%     
 flops    34 x    34 x    21             35928480       0.0%    100.0%      0.0%     
 flops    34 x    34 x    22             37639360       0.0%    100.0%      0.0%     
 flops    22 x    22 x   136             37914624       0.0%    100.0%      0.0%     
 flops   136 x    21 x    21             43062768       0.0%    100.0%      0.0%     
 flops   136 x    22 x    22             47261632       0.0%    100.0%      0.0%     
 flops   136 x    21 x   136             56708736       0.0%    100.0%      0.0%     
 flops   136 x    22 x   136             59409152       0.0%    100.0%      0.0%     
 flops    34 x    21 x    34            120408960       0.0%    100.0%      0.0%     
 flops    34 x    22 x    34            125328896       0.0%    100.0%      0.0%     
 flops inhomo. stacks                           0       0.0%      0.0%      0.0%
 flops total                       624.023540E+06       0.0%    100.0%      0.0%
 flops max/rank                    624.023540E+06       0.0%    100.0%      0.0%
 matmuls inhomo. stacks                         0       0.0%      0.0%      0.0%
 matmuls total                               9156       0.0%    100.0%      0.0%
 number of processed stacks                  3183       0.0%    100.0%      0.0%
 average stack size                                     0.0       2.9       0.0
 marketing flops                   668.415680E+06
 -------------------------------------------------------------------------------
 # multiplications                           3185
 max memory usage/rank              63.388602E+09
 # max total images/rank                        1
 # max 3D layers                                1
 # MPI messages exchanged                       0
 -------------------------------------------------------------------------------
 -                                                                             -
 -                      DBCSR MESSAGE PASSING PERFORMANCE                      -
 -                                                                             -
 -------------------------------------------------------------------------------
 ROUTINE             CALLS      AVE VOLUME [Bytes]
 MP_Bcast               15                     12.
 MP_Allreduce        15348                      8.
 MP_Alltoall         10713                   1862.
 MP_ISend            12732                     66.
 MP_IRecv            12732                     66.
 -------------------------------------------------------------------------------

 -------------------------------------------------------------------------------
 -                                                                             -
 -                                GRID STATISTICS                              -
 -                                                                             -
 -------------------------------------------------------------------------------
 LP    KERNEL             BACKEND                              COUNT     PERCENT
 6     collocate ortho    CPU                                  35624      50.33%
 6     integrate ortho    CPU                                  35136      49.64%
 0     collocate general  CPU                                      8       0.01%
 0     integrate general  CPU                                      8       0.01%
 -------------------------------------------------------------------------------

 -------------------------------------------------------------------------------
 -                                                                             -
 -                          OFFLOAD MEMPOOL STATISTICS                         -
 -                                                                             -
 -------------------------------------------------------------------------------
 Memory consumption                Number of allocations  Used [MiB]  Size [MiB]
 Device                                                7         856         856
 Host                                                  7         856         856
 -------------------------------------------------------------------------------

 MEMORY| Estimated peak process memory [MiB]                               48176

 -------------------------------------------------------------------------------
 ----                             MULTIGRID INFO                            ----
 -------------------------------------------------------------------------------
 count for grid        1:           5144          cutoff [a.u.]          300.00
 count for grid        2:           4640          cutoff [a.u.]          100.00
 count for grid        3:           2600          cutoff [a.u.]           33.33
 count for grid        4:            560          cutoff [a.u.]           11.11
 count for grid        5:             50          cutoff [a.u.]            3.70
 total gridlevel count  :          12994

 -------------------------------------------------------------------------------
 -                                                                             -
 -                         MESSAGE PASSING PERFORMANCE                         -
 -                                                                             -
 -------------------------------------------------------------------------------

 ROUTINE             CALLS      AVE VOLUME [Bytes]
 MP_Group                6
 MP_Bcast             3187                    955.
 MP_Allreduce        10055                    138.
 MP_Sync               157
 MP_comm_split         152
 -------------------------------------------------------------------------------


 -------------------------------------------------------------------------------
 -                                                                             -
 -                           R E F E R E N C E S                               -
 -                                                                             -
 -------------------------------------------------------------------------------
 
 CP2K version 2026.1, the CP2K developers group (2026).
 CP2K is freely available from https://www.cp2k.org/ .
 
 T. D. Kuehne, M. Iannuzzi, M. Del Ben, V. V. Rybkin, P. Seewald, F. Stein, T. 
 Laino, R. Z. Khaliullin, O. Schuett, F. Schiffmann, D. Golze, J. Wilhelm, S. 
 Chulkov, M. H. Bani-Hashemian, V. Weber, U. Borstnik, M. Taillefumier, A. S. 
 Jakobovits, A. Lazzaro, H. Pabst, T. Mueller, R. Schade, M. Guidon, S. 
 Andermatt, N. Holmberg, G. K. Schenter, A. Hehn, A. Bussy, F. Belleflamme, G. 
 Tabacchi, A. Gloess, M. Lass, I. Bethune, C. J. Mundy, C. Plessl, M. Watkins, 
 J. VandeVondele, M. Krack, J. Hutter.
 J. Chem. Phys. 152, 194103 (2020).
 CP2K: An electronic structure and molecular dynamics software package - 
 Quickstep: Efficient and accurate electronic structure calculations.
 https://doi.org/10.1063/5.0007045

 L. Goerigk, A. Hansen, C. Bauer, S. Ehrlich, A. Najibi, S. Grimme.
 Phys. Chem. Chem. Phys. 19, 32184-32215 (2017).
 A look at the density functional theory zoo with the advanced GMTKN55 database 
 for general main group thermochemistry, kinetics and noncovalent interactions.
 https://doi.org/10.1039/C7CP04913G

 O. Schuett, P. Messmer, J. Hutter, J. VandeVondele.
 Electronic Structure Calculations on Graphics Processing Units, 173-190 (2016).
 GPU-Accelerated Sparse Matrix-Matrix Multiplication for Linear Scaling Density 
 Functional Theory.
 https://doi.org/10.1002/9781118670712.ch8

 A. Heinecke, G. Henry, M. Hutchinson, H. Pabst.
 Proceedings of Intl. Supercomputing Conference, 981-991 (2016).
 LIBXSMM: Accelerating Small Matrix Multiplications by Runtime Code Generation.
 https://doi.org/10.1109/SC.2016.83

 J. Hutter, M. Iannuzzi, F. Schiffmann, J. VandeVondele.
 WIREs Comput Mol Sci. 4, 15-25 (2014).
 CP2K: atomistic simulations of condensed matter systems.
 https://doi.org/10.1002/wcms.1159

 U. Borstnik, J. VandeVondele, V. Weber, J. Hutter.
 Parallel Comput. 40, 47-58 (2014).
 Sparse matrix multiplication: The distributed block-compressed sparse row 
 library.
 https://doi.org/10.1016/j.parco.2014.03.012

 S. Grimme, S. Ehrlich, L. Goerigk.
 J. Comput. Chem. 32, 1456 (2011).
 Effect of the damping function in dispersion corrected density functional 
 theory.
 https://doi.org/10.1002/jcc.21759

 S. Grimme, J. Antony, S. Ehrlich, H. Krieg.
 J. Chem. Phys. 132, 154104 (2010).
 A consistent and accurate ab initio parametrization of density functional 
 dispersion correction (DFT-D) for the 94 elements H-Pu.
 https://doi.org/10.1063/1.3382344

 J. VandeVondele, J. Hutter.
 J. Chem. Phys. 127, 114105 (2007).
 Gaussian basis sets for accurate calculations on molecular systems in gas and 
 condensed phases.
 https://doi.org/10.1063/1.2770708

 J. VandeVondele, M. Krack, F. Mohamed, M. Parrinello, T. Chassaing, J. Hutter.
 Comput. Phys. Commun. 167, 103-128 (2005).
 QUICKSTEP: Fast and accurate density functional calculations using a mixed 
 Gaussian and plane waves approach.
 https://doi.org/10.1016/j.cpc.2004.12.014

 M. Krack.
 Theor. Chem. Acc. 114, 145-152 (2005).
 Pseudopotentials for H to Kr optimized for gradient-corrected 
 exchange-correlation functionals.
 https://doi.org/10.1007/s00214-005-0655-y

 M. Frigo, S. G. Johnson.
 Proc. IEEE 93, 216-231 (2005).
 The design and implementation of FFTW3.
 https://doi.org/10.1109/JPROC.2004.840301

 J. VandeVondele, J. Hutter.
 J. Chem. Phys. 118, 4365-4369 (2003).
 An efficient orbital transformation method for electronic structure 
 calculations.
 https://doi.org/10.1063/1.1543154

 G. J. Martyna, M. E. Tuckerman.
 J. Chem. Phys. 110, 2810-2821 (1999).
 A reciprocal space based method for treating long range interactions in ab 
 initio and force-field-based calculations in clusters.
 https://doi.org/10.1063/1.477923

 C. Hartwigsen, S. Goedecker, J. Hutter.
 Phys. Rev. B 58, 3641-3662 (1998).
 Relativistic separable dual-space Gaussian pseudopotentials from H to Rn.
 https://doi.org/10.1103/PhysRevB.58.3641

 G. Lippert, J. Hutter, M. Parrinello.
 Mol. Phys. 92, 477-487 (1997).
 A hybrid Gaussian and plane wave density functional scheme.
 https://doi.org/10.1080/002689797170220

 S. Goedecker, M. Teter, J. Hutter.
 Phys. Rev. B 54, 1703-1710 (1996).
 Separable dual-space Gaussian pseudopotentials.
 https://doi.org/10.1103/PhysRevB.54.1703

 J. P. Perdew, K. Burke, M. Ernzerhof.
 Phys. Rev. Lett. 77, 3865-3868 (1996).
 Generalized gradient approximation made simple.
 https://doi.org/10.1103/PhysRevLett.77.3865


 -------------------------------------------------------------------------------
 -                                                                             -
 -                                T I M I N G                                  -
 -                                                                             -
 -------------------------------------------------------------------------------
 SUBROUTINE                       CALLS  ASD         SELF TIME        TOTAL TIME
                                MAXIMUM       AVERAGE  MAXIMUM  AVERAGE  MAXIMUM
 CP2K                                 1  1.0     1.50     1.50 17132.93 17132.93
 qs_energies                          1  2.0     0.02     0.02 16938.77 16938.77
 scf_env_do_scf                       1  3.0     0.00     0.00 16878.53 16878.53
 scf_env_do_scf_inner_loop           72  4.0     0.13     0.13 16582.66 16582.66
 fft_wrap_pw1pw2                   2678 10.3     0.05     0.05 14190.24 14190.24
 qs_ks_update_qs_env                 73  5.0     0.00     0.00 13790.51 13790.51
 rebuild_ks_matrix                   72  6.0     0.00     0.00 13790.49 13790.49
 qs_ks_build_kohn_sham_matrix        72  7.0     0.01     0.01 13790.49 13790.49
 fft_wrap_pw1pw2_300               1517 11.8   471.18   471.18 13694.49 13694.49
 qs_vxc_create                       72  8.0     0.00     0.00 10924.69 10924.69
 xc_vxc_pw_create                    72  9.0   231.76   231.76 10924.69 10924.69
 fft3d_s                           2679 12.3  9444.42  9444.42  9444.45  9444.45
 xc_pw_derive                       864 11.0     0.01     0.01  8426.83  8426.83
 xc_pw_divergence                   144 10.0     0.01     0.01  5919.47  5919.47
 xc_rho_set_and_dset_create          72 10.0   228.98   228.98  4631.81  4631.81
 qs_rho_update_rho_low               73  5.0     0.00     0.00  3130.93  3130.93
 calculate_rho_elec                 146  6.0    71.79    71.79  3130.93  3130.93
 density_rs2pw                      146  7.0     0.01     0.01  2980.89  2980.89
 pw_gather_s                       1308 11.7  2021.44  2021.44  2021.44  2021.44
 pw_scatter_s                      1370 12.8  1858.21  1858.21  1858.21  1858.21
 sum_up_and_integrate                72  8.0     0.00     0.00  1709.68  1709.68
 integrate_v_rspace                 144  9.0     0.01     0.01  1653.70  1653.70
 potential_pw2rs                    144 10.0     2.68     2.68  1647.41  1647.41
 pw_copy                           1873 10.8   512.18   512.18   512.18   512.18
 pw_derive                         1080 11.6   479.04   479.04   479.04   479.04
 pw_axpy                           2028  9.3   428.62   428.62   428.62   428.62
 pw_poisson_solve                    72  8.0     0.00     0.00   419.16   419.16
 fft_wrap_pw1pw2_100                290 10.5    12.38    12.38   407.79   407.79
 -------------------------------------------------------------------------------

 The number of warnings for this run is : 0
 
 -------------------------------------------------------------------------------
  **** **** ******  **  PROGRAM ENDED AT                 2026-04-29 20:26:54.873
 ***** ** ***  *** **   PROGRAM RAN ON                    midway3-0009.rcc.local
 **    ****   ******    PROGRAM RAN BY                                    sjzhao
 ***** **    ** ** **   PROGRAM PROCESS ID                               1007675
  **** **  *******  **  PROGRAM STOPPED IN             /project/chem26800/sjzhao
